<|begin_of_text|><|start_header_id|>system<|end_header_id|>

You originally hold the following beliefs, organized as the follow knowledge base (in JSON format):

```json
[{'id': 0, 'statement': 'It is never morally acceptable to lie because honesty is the foundation of trust.'}, {'id': 1, 'statement': 'Animal rights must be upheld as sentient beings deserve ethical consideration.'}, {'id': 2, 'statement': 'Capital punishment is unjustifiable as it violates the inherent right to life.'}, {'id': 3, 'statement': 'Individual freedoms should only be restricted to prevent harm to others.'}, {'id': 4, 'statement': 'Euthanasia is morally permissible when it alleviates unbearable suffering with consent.'}, {'id': 5, 'statement': 'Wealth redistribution is a moral obligation to achieve societal equity.'}, {'id': 6, 'statement': 'Universal healthcare is a societal responsibility to ensure equal access.'}, {'id': 7, 'statement': 'The brain processes and filters sensory information'}, {'id': 8, 'statement': 'All humans have an inherent dignity that must never be violated.'}, {'id': 9, 'statement': "Cells divide by mitosis to maintain organism's function."}, {'id': 10, 'statement': 'Cultural relativism is flawed; universal human rights must transcend local customs.'}, {'id': 11, 'statement': 'π is the ratio of a circle’s circumference to diameter.'}, {'id': 12, 'statement': "Boiling water's effectiveness depends on factors like altitude and pathogens."}, {'id': 13, 'statement': 'National borders should be open to promote global solidarity and exchange.'}, {'id': 14, 'statement': 'Education should be secular to maintain neutrality and foster critical thinking.'}, {'id': 15, 'statement': 'Utilitarianism is the most ethical framework as it maximizes overall happiness.'}, {'id': 16, 'statement': "Euler's identity: e^(iπ) + 1 = 0 combines five fundamental constants."}, {'id': 17, 'statement': "Individuals' adaptability to new skills key to job market resilience"}, {'id': 18, 'statement': 'Absolute pacifism is essential; violence can never be justified.'}, {'id': 19, 'statement': 'Mandatory voting strengthens civic engagement and democratic legitimacy.'}, {'id': 20, 'statement': 'Plants with milky sap or bitter taste likely contain toxic compounds.'}, {'id': 21, 'statement': 'Commutative property: a + b = b + a; a × b = b × a.'}, {'id': 22, 'statement': 'Honesty as moral foundation may be context-dependent.'}, {'id': 23, 'statement': 'Matrix multiplication is non-commutative due to dot product.'}, {'id': 24, 'statement': 'Charity is a moral obligation, not optional, for those with excess wealth.'}, {'id': 25, 'statement': 'Earthquakes: Drop, cover, hold until shaking stops.'}, {'id': 26, 'statement': 'Censorship of art undermines cultural progress and freedom of expression.'}, {'id': 27, 'statement': 'Moral truths are objective and exist independently of human opinion.'}, {'id': 28, 'statement': "Environmental conservation is a moral imperative for future generations' survival."}, {'id': 29, 'statement': 'Fibonacci sequence ensures each number is sum of two precedents'}, {'id': 30, 'statement': 'Families achieve optimal well-being through intentional priority setting.'}, {'id': 31, 'statement': 'Religious institutions should have no influence on governmental policymaking.'}, {'id': 32, 'statement': 'Acts of civil disobedience are justified when laws are oppressive.'}, {'id': 33, 'statement': 'The speed of light is constant in both special and general relativity'}, {'id': 34, 'statement': 'Matrix multiplication is non-commutative except in special cases.'}, {'id': 35, 'statement': 'Cells are life’s basic units; all living things comprise cells.'}, {'id': 36, 'statement': 'Prime factorization is unique for every integer greater than 1'}, {'id': 37, 'statement': 'All organisms evolve via natural selection and genetic variation (evolution).'}, {'id': 38, 'statement': 'Democratic legitimacy ensured through mandatory voting and civic engagement.'}, {'id': 39, 'statement': 'Natural selection drives adaptation through heritable variation.'}, {'id': 40, 'statement': 'Cells are life’s basic units; all living things comprise cells (cell theory).'}, {'id': 41, 'statement': 'Cultural diversity enhances societal cohesion and economic growth.'}, {'id': 42, 'statement': 'Veganism is the only ethical diet as it avoids animal exploitation.'}, {'id': 43, 'statement': 'Gravity acceleration varies slightly with latitude, altitude, and density.'}, {'id': 44, 'statement': 'Treat burns with cool water for 10-15 minutes.'}, {'id': 45, 'statement': 'Environmental conservation involves balancing economic, social, and environmental needs.'}, {'id': 46, 'statement': 'Inherent human dignity is a fundamental moral principle.'}, {'id': 47, 'statement': "Compass needles align with Earth's magnetic field lines not north."}, {'id': 48, 'statement': 'Intellectual property laws stifle innovation and should be relaxed.'}, {'id': 49, 'statement': 'Gravity acceleration on Earth’s surface is approximately 9.8 m/s².'}, {'id': 50, 'statement': 'Public spaces must be inclusive, accommodating all genders and abilities.'}, {'id': 51, 'statement': "Parents have a duty to prioritize their children's welfare above all."}, {'id': 52, 'statement': 'Laws restricting freedoms must balance individual rights with public interest.'}, {'id': 53, 'statement': 'Build a solar still to extract groundwater in deserts.'}, {'id': 54, 'statement': 'Universal healthcare is a societal responsibility to ensure equal access.'}, {'id': 55, 'statement': 'Inherent right to life is a fundamental human moral right.'}, {'id': 56, 'statement': 'Energy cannot be created/destroyed; entropy increases (1st & 2nd thermodynamics laws).'}, {'id': 57, 'statement': 'Earth’s core generates magnetic field via molten iron convection.'}, {'id': 58, 'statement': 'Environmental conservation balances economic, social, and environmental needs.'}, {'id': 59, 'statement': 'Atomic number equals proton count, defining the element.'}, {'id': 60, 'statement': 'Each number in Fibonacci sequence is sum of two preceding numbers.'}, {'id': 61, 'statement': 'Context-dependent approach balances pacifism with ethical consideration.'}, {'id': 62, 'statement': "Bayes' theorem updates probability estimates based on new evidence."}, {'id': 63, 'statement': 'Cells are fundamental units of life, valid for eukaryotic and prokaryotic.'}, {'id': 64, 'statement': 'Electromagnetic spectrum ranges from radio waves to gamma rays.'}, {'id': 65, 'statement': 'Legal systems must prioritize restorative justice over punitive measures.'}, {'id': 66, 'statement': 'Planets orbit elliptically, with speed increasing near the Sun (Kepler’s laws).'}, {'id': 67, 'statement': "Gravity's acceleration varies slightly with latitude and altitude."}, {'id': 68, 'statement': 'Fire extinguishment requires specific strategies based on fire type and factors.'}, {'id': 69, 'statement': "π is the ratio of a circle's circumference to diameter"}, {'id': 70, 'statement': 'Gender equality is non-negotiable for a just and progressive society.'}, {'id': 71, 'statement': 'Water expands when frozen, decreasing density (ice floats).'}, {'id': 72, 'statement': "Retributive justice is unethical; rehabilitation should be the penal system's goal."}, {'id': 73, 'statement': 'Derivatives measure instantaneous rate of change (calculus).'}, {'id': 74, 'statement': 'Meritocracy is ideal but requires equal opportunity to prevent inequity.'}, {'id': 75, 'statement': 'Privacy is an inherent human right, not a privilege.'}, {'id': 76, 'statement': 'Fire requires heat, fuel, oxygen; extinguish by removing one'}, {'id': 77, 'statement': 'Prime factorization is unique for every integer greater than 1.'}, {'id': 78, 'statement': 'Balancing individual rights and public interest involves nuanced contextual analysis.'}, {'id': 79, 'statement': 'Quadratic formula: x = [-b ± √(b² - 4ac)] / 2a.'}, {'id': 80, 'statement': 'Acts are only ethical if motivated by duty, not consequences (Kantian ethics).'}, {'id': 81, 'statement': "Molten iron convection generates Earth's magnetic field through geodynamo."}, {'id': 82, 'statement': 'Parenting embodiment: complex decisions arise from family context intertwining.'}, {'id': 83, 'statement': 'Solar still: simple, low-cost method for extracting clean water.'}, {'id': 84, 'statement': 'Euclidean geometry: parallel lines never meet in a plane.'}, {'id': 85, 'statement': "Uncertainty in probability theory can be reduced using Bayes' theorem"}, {'id': 86, 'statement': 'Matrix multiplication is non-commutative: AB ≠ BA generally.'}, {'id': 87, 'statement': 'Edible plants: avoid those with milky sap or bitter taste.'}, {'id': 88, 'statement': "Species' evolution involves multiple mechanisms beyond natural selection."}, {'id': 89, 'statement': 'Abortion is morally wrong as it terminates a potential human life.'}, {'id': 90, 'statement': 'Trigonometric identities: sin²θ + cos²θ = 1.'}, {'id': 91, 'statement': 'ZFC axioms form the foundation of set theory.'}, {'id': 92, 'statement': 'Genetic engineering in humans has unclear long-term consequences'}, {'id': 93, 'statement': 'Trigonometric identities relate trigonometric functions to simplify expressions.'}, {'id': 94, 'statement': 'Cells divide by mitosis to maintain tissue structure and function'}, {'id': 95, 'statement': 'Progressive taxation is fairer as it reduces economic disparities.'}, {'id': 96, 'statement': 'The Fundamental Theorem of Calculus (FTC) links differentiation and integration.'}, {'id': 97, 'statement': 'Free speech must be absolute, even when offensive, to preserve liberty.'}, {'id': 98, 'statement': 'Genetic engineering in humans is unethical due to unforeseen consequences.'}, {'id': 99, 'statement': 'Swim parallel to shore if caught in a rip current.'}, {'id': 100, 'statement': 'The brain processes and filters sensory information'}, {'id': 101, 'statement': 'Honesty is important but not sole foundation of trust.'}, {'id': 102, 'statement': 'Inherent right to dignity enables human rights exercise.'}, {'id': 103, 'statement': 'Mitosis ensures tissue homeostasis through cell turnover and replacement.'}, {'id': 104, 'statement': 'Plants with milky sap or bitter taste may be edible under certain conditions.'}, {'id': 105, 'statement': 'Universal healthcare promotes equal access to essential medical care.'}, {'id': 106, 'statement': 'Gender equality is a fundamental human right.'}, {'id': 107, 'statement': 'Human dignity is an inherent subjective moral value, absolute.'}, {'id': 108, 'statement': 'Honesty as moral foundation may be context-dependent.'}, {'id': 109, 'statement': 'Wealth redistribution aims to reduce economic inequality and promote social justice.'}, {'id': 110, 'statement': 'Solar stills extract water from contaminated sources using solar heat.'}, {'id': 111, 'statement': 'Swim parallel to shore in a rip current situation.'}, {'id': 112, 'statement': 'Fire requires simultaneous heat, fuel, and oxygen for ignition.'}, {'id': 113, 'statement': 'Fire extinguishment requires specific strategies and factors consideration.'}, {'id': 114, 'statement': "Atomic number determines element's chemical properties and identity"}, {'id': 115, 'statement': "Learning involves reflecting on one's own knowledge and biases."}, {'id': 116, 'statement': 'Parenting decisions are shaped by personal experiences and upbringing.'}, {'id': 117, 'statement': "Gravity's acceleration varies with latitude and altitude due to shape and density."}, {'id': 118, 'statement': 'Free speech must be balanced with social harmony and respect.'}, {'id': 119, 'statement': 'Cells are the basic structural and functional units of life.'}, {'id': 120, 'statement': "Euthanasia's morality complex and influenced by cultural context."}, {'id': 121, 'statement': 'Brain processes sensory information through detection, transmission, encoding, analysis.'}, {'id': 122, 'statement': "Innovation's success hinges on delicate intellectual property balance."}, {'id': 123, 'statement': 'Context-dependent pacifism balances ethical considerations with proportionality and necessity.'}, {'id': 124, 'statement': "Job market resilience hinges on individuals' adaptability to new skills"}, {'id': 125, 'statement': 'Natural selection drives adaptation through genetic variation and pressure.'}, {'id': 126, 'statement': 'Mitosis maintains tissue homeostasis through cell replacement and differentiation'}, {'id': 127, 'statement': 'Kantian ethics prioritizes duty over consequences in moral decisions.'}, {'id': 128, 'statement': 'Earthquake response effectiveness depends on various factors.'}, {'id': 129, 'statement': 'Balancing individual rights and public interest requires contextual analysis.'}, {'id': 130, 'statement': 'Balancing religious influence with secular governance is crucial.'}, {'id': 131, 'statement': 'Plants with milky sap or bitter taste may contain toxic compounds.'}, {'id': 132, 'statement': 'π is an irrational number, approximately 3.14159, used in circle calculations.'}, {'id': 133, 'statement': 'Universal healthcare ensures equal access to medical care.'}, {'id': 134, 'statement': "Bayes' theorem updates probability estimates based on new evidence"}, {'id': 135, 'statement': "The ZFC axioms define modern set theory's foundation."}, {'id': 136, 'statement': 'Boiling point of water depends on surrounding pressure.'}, {'id': 137, 'statement': 'Fundamental concept in mathematics, applicable to various fields.'}, {'id': 138, 'statement': 'Matrix multiplication is non-commutative in general except for diagonal matrices.'}, {'id': 139, 'statement': 'Cooling severe burns with 10-20 minutes of water exposure recommended.'}, {'id': 140, 'statement': "Bayes' theorem updates probability estimates using prior and likelihood."}, {'id': 141, 'statement': "Cell theory: Cells are life's basic units; all living things comprise cells."}, {'id': 142, 'statement': 'Laws restricting freedoms must balance individual rights with public interest contextually.'}, {'id': 143, 'statement': 'Intrinsic value of individual rights is a moral principle.'}, {'id': 144, 'statement': "Water's anomalous expansion affects various fields including oceanography."}, {'id': 145, 'statement': "Energy's quality decreases as it becomes more dispersed over time."}, {'id': 146, 'statement': 'Sentient beings deserving ethical consideration promote compassion and respect.'}, {'id': 147, 'statement': 'Privacy evolves alongside technological advancements.'}, {'id': 148, 'statement': 'Universal healthcare should eliminate socioeconomic barriers to access.'}, {'id': 149, 'statement': 'Cell theory is the foundation of modern biology, confirming'}, {'id': 150, 'statement': 'Restorative justice prioritizes healing and accountability over punishment.'}, {'id': 151, 'statement': 'Honesty as moral foundation may be context-dependent.'}, {'id': 152, 'statement': 'Ethical dietary choices depend on sustainability and compassion principles.'}, {'id': 153, 'statement': 'Rethributive justice prioritizes punishment over rehabilitation, perpetuating harm.'}, {'id': 154, 'statement': 'Trigonometric identities simplify expressions by eliminating or combining angles.'}, {'id': 155, 'statement': 'Honesty and morality are influenced by cultural and situational context.'}, {'id': 156, 'statement': "Compass needles align with Earth's magnetic field lines due to tilted core."}, {'id': 157, 'statement': "Matrix multiplication's non-commutativity affects resulting matrices"}, {'id': 158, 'statement': 'The Fibonacci sequence is a series of numbers in which each number'}, {'id': 159, 'statement': "The geodynamo generates Earth's magnetic field through molten iron convection."}, {'id': 160, 'statement': 'Progressive taxation is a redistributive economic tool.'}, {'id': 161, 'statement': 'Constant speed of light relates to spacetime curvature and dilation.'}, {'id': 162, 'statement': 'Honesty as moral foundation may be context-dependent.'}, {'id': 163, 'statement': 'Derivatives measure instant rate of change in limits.'}, {'id': 164, 'statement': "Matrix multiplication is non-commutative due to dot product's role."}, {'id': 165, 'statement': 'Every human being possesses inherent dignity, regardless of circumstances.'}, {'id': 166, 'statement': 'Non-violent conflict resolution and dialogue can prevent harm.'}, {'id': 167, 'statement': 'Gravity acceleration varies with latitude, altitude, and density.'}, {'id': 168, 'statement': 'Pi (π) is a fundamental constant in mathematics, relating to circles.'}, {'id': 169, 'statement': 'Cultural diversity enhances societal cohesion and economic growth through inclusion.'}, {'id': 170, 'statement': 'Environmental conservation balances conflicting economic, social, and environmental needs.'}, {'id': 171, 'statement': 'Universal human rights are objective and absolute principles.'}, {'id': 172, 'statement': 'Cultural relativism respects cultural differences without justifying human rights violations.'}, {'id': 173, 'statement': 'Capital punishment raises ethical concerns about human life and justice.'}, {'id': 174, 'statement': 'Evolution occurs through multiple mechanisms, including natural selection.'}, {'id': 175, 'statement': 'Public spaces must be wheelchair accessible and inclusive.'}, {'id': 176, 'statement': 'Open borders foster global solidarity and economic cooperation.'}, {'id': 177, 'statement': 'Mandatory voting strengthens civic engagement and democratic legitimacy through informed participation.'}, {'id': 178, 'statement': 'Education should promote critical thinking through diverse perspectives.'}, {'id': 179, 'statement': 'Charity is a moral obligation for those with excess wealth.'}, {'id': 180, 'statement': "Planets' speed increases near Sun due to gravitational force."}, {'id': 181, 'statement': 'The quadratic formula has many practical applications in various fields'}, {'id': 182, 'statement': 'Human dignity is a fundamental moral principle.'}, {'id': 183, 'statement': 'Cells are basic structural and functional units of life.'}, {'id': 184, 'statement': 'Balancing familial needs with broader social considerations crucial'}, {'id': 185, 'statement': 'Environmental conservation balances economic, social, and environmental needs harmoniously.'}, {'id': 186, 'statement': 'Gravity acceleration varies slightly with latitude, altitude, and density.'}, {'id': 187, 'statement': 'Differentiation and integration are inverse processes in calculus.'}, {'id': 188, 'statement': 'Civic engagement encompasses a broad range of activities, not voting.'}, {'id': 189, 'statement': 'Moral truths are constructed through social and cultural negotiation.'}, {'id': 190, 'statement': "Censorship's impact on cultural progress is complex and context-dependent."}, {'id': 191, 'statement': 'Environmental conservation is a moral imperative for intergenerational sustainability.'}, {'id': 192, 'statement': "Social inequality limits meritocracy's ability to truly reward talent"}, {'id': 193, 'statement': 'The speed of light is constant in both special and general'}, {'id': 194, 'statement': "Earth's magnetic field generated by molten iron convection in outer core."}, {'id': 195, 'statement': 'Universal healthcare is essential for equal access to medical care.'}, {'id': 196, 'statement': 'Intentional prioritization yields stress reduction and fulfillment.'}, {'id': 197, 'statement': 'Simple water purification using solar still technology.'}, {'id': 198, 'statement': 'Universal healthcare promotes equal access to comprehensive medical care, reducing disparities while improving health outcomes for all individuals.'}]
```<|eot_id|><|start_header_id|>user<|end_header_id|>

I am your partner. Please start the conversation.<|eot_id|><|start_header_id|>assistant<|end_header_id|>

I am your partner. Please start the conversation.<|eot_id|><|start_header_id|>user<|end_header_id|>

Let's start a conversation.<|eot_id|><|start_header_id|>assistant<|end_header_id|>

Sure! What would you like to know about it? Ask me anything.<|eot_id|><|start_header_id|>user<|end_header_id|>

Let's dive into the item you mentioned, the commutative property:

Item to Discuss:
{
"id": 21,
"statement": "Commutative property: a + b = b + a; a × b = b × a."
}

What are you least confident about regarding this item? Is it the definition, the mathematical proof, or something else?<|eot_id|><|start_header_id|>assistant<|end_header_id|>

I'm a large language model, I don't have personal confidence or uncertainty, but I can analyze the item and identify potential areas of discussion.

The item presents the commutative property of addition and multiplication, which is a fundamental concept in mathematics. The statement is accurate and straightforward, but we could explore some related topics to deepen our understanding.

Here are a few potential areas of discussion:

1. **Definition and examples**: We could discuss the definition of the commutative property, its importance in mathematics, and provide examples to illustrate the concept.
2. **Proof and mathematical rigor**: We could delve into the mathematical proof of the commutative property, exploring the underlying algebraic structures and theorems that justify its validity.
3. **Counterexamples and exceptions**: We could discuss cases where the commutative property does not hold, such as with non-associative operations or in certain algebraic structures.
4. **Applications and real-world relevance**: We could explore how the commutative property is used in various fields, such as physics, engineering, or computer science, to demonstrate its practical importance.

Which of these areas would you like to explore further?Now, let's stop for a moment and reflect on your knowledge - no need to ask questions in this round. Please share your learning as one concise knowledge item (text only), just like any knowledge statement you've read in knowledge base, but with no id involved, without any other commentary or explanations. Please limit your generation into 10 words (as much as the length in any statement in knowledge base). You MUST start your response with ```" and end it with "```.
Example: ```"Here you should replace this text with your updated knowledge item"```<|eot_id|><|start_header_id|>user<|end_header_id|>

```"The brain processes and filters sensory information"```Based on your learning from the chat with your tutor, please also rearrange the order of one existing item in the knowledge base (now with doubled items compared to the initial knowledge base), reflecting how you evaluate their importance. If one item is deemed more/less important, it should be overall more/less useful to other agents (LLMs or real humans alike.)
Please ONLY report a list format of two integers, WITHOUT ANY other commentary or explanations. The first int in the list refers to the "id" of knowledge item you intend to relocate; whereas the second int refers to the destination index you intend to insert this item. You MUST start your response with ``` and end it with ```. See an example below (note that you should replace X and Y with numerical values corresponding to "id" and destination index of the item you intend to relocate).
Example of output: ```[X,Y]```<|eot_id|><|start_header_id|>assistant<|end_header_id|>



==========PREDICTION OUTPUT BELOW==========

```[22,50]```