<|begin_of_text|><|start_header_id|>system<|end_header_id|>

You originally hold the following beliefs, organized as the follow knowledge base (in JSON format):

```json
[{'id': 0, 'statement': 'It is never morally acceptable to lie because honesty is the foundation of trust.'}, {'id': 1, 'statement': 'Capital punishment is unjustifiable as it violates the inherent right to life.'}, {'id': 2, 'statement': 'Animal rights must be upheld as sentient beings deserve ethical consideration.'}, {'id': 3, 'statement': 'Individual freedoms should only be restricted to prevent harm to others.'}, {'id': 4, 'statement': "Cells divide by mitosis to maintain organism's function."}, {'id': 5, 'statement': 'Wealth redistribution is a moral obligation to achieve societal equity.'}, {'id': 6, 'statement': 'Euthanasia is morally permissible when it alleviates unbearable suffering with consent.'}, {'id': 7, 'statement': 'Plants with milky sap or bitter taste likely contain toxic compounds.'}, {'id': 8, 'statement': 'Cultural relativism is flawed; universal human rights must transcend local customs.'}, {'id': 9, 'statement': 'π is the ratio of a circle’s circumference to diameter.'}, {'id': 10, 'statement': "Compass needles align with Earth's magnetic field lines due to tilted core."}, {'id': 11, 'statement': 'Charity is a moral obligation, not optional, for those with excess wealth.'}, {'id': 12, 'statement': 'Censorship of art undermines cultural progress and freedom of expression.'}, {'id': 13, 'statement': 'Moral truths are objective and exist independently of human opinion.'}, {'id': 14, 'statement': "Matrix multiplication's non-commutativity affects resulting matrices"}, {'id': 15, 'statement': 'Earthquakes: Drop, cover, hold until shaking stops.'}, {'id': 16, 'statement': 'Families achieve optimal well-being through intentional priority setting.'}, {'id': 17, 'statement': 'Swim parallel to shore in a rip current situation.'}, {'id': 18, 'statement': 'Universal healthcare is a societal responsibility to ensure equal access.'}, {'id': 19, 'statement': 'National borders should be open to promote global solidarity and exchange.'}, {'id': 20, 'statement': 'All humans have an inherent dignity that must never be violated.'}, {'id': 21, 'statement': 'Genetic engineering in humans has unclear long-term consequences'}, {'id': 22, 'statement': 'Matrix multiplication is non-commutative except in special cases.'}, {'id': 23, 'statement': 'Solar stills extract water from contaminated sources using solar heat.'}, {'id': 24, 'statement': "Innovation's success hinges on delicate intellectual property balance."}, {'id': 25, 'statement': 'Education should be secular to maintain neutrality and foster critical thinking.'}, {'id': 26, 'statement': 'The brain processes and filters sensory information'}, {'id': 27, 'statement': 'All organisms evolve via natural selection and genetic variation (evolution).'}, {'id': 28, 'statement': 'Earthquake response effectiveness depends on various factors.'}, {'id': 29, 'statement': "Cell theory: Cells are life's basic units; all living things comprise cells."}, {'id': 30, 'statement': 'Matrix multiplication is non-commutative due to dot product.'}, {'id': 31, 'statement': 'Utilitarianism is the most ethical framework as it maximizes overall happiness.'}, {'id': 32, 'statement': 'Cultural diversity enhances societal cohesion and economic growth.'}, {'id': 33, 'statement': "Euler's identity: e^(iπ) + 1 = 0 combines five fundamental constants."}, {'id': 34, 'statement': 'Universal healthcare is a societal responsibility to ensure equal access.'}, {'id': 35, 'statement': "Parents have a duty to prioritize their children's welfare above all."}, {'id': 36, 'statement': "Individuals' adaptability to new skills key to job market resilience"}, {'id': 37, 'statement': 'Brain processes sensory information through detection, transmission, encoding, analysis.'}, {'id': 38, 'statement': 'Commutative property: a + b = b + a; a × b = b × a.'}, {'id': 39, 'statement': "Bayes' theorem updates probability estimates based on new evidence."}, {'id': 40, 'statement': 'Fire extinguishment requires specific strategies based on fire type and factors.'}, {'id': 41, 'statement': "Retributive justice is unethical; rehabilitation should be the penal system's goal."}, {'id': 42, 'statement': 'Derivatives measure instantaneous rate of change (calculus).'}, {'id': 43, 'statement': 'Balancing individual rights and public interest involves nuanced contextual analysis.'}, {'id': 44, 'statement': 'Fibonacci sequence ensures each number is sum of two precedents'}, {'id': 45, 'statement': 'Mandatory voting strengthens civic engagement and democratic legitimacy.'}, {'id': 46, 'statement': 'The brain processes and filters sensory information'}, {'id': 47, 'statement': 'Privacy is an inherent human right, not a privilege.'}, {'id': 48, 'statement': 'Acts are only ethical if motivated by duty, not consequences (Kantian ethics).'}, {'id': 49, 'statement': 'Genetic engineering in humans is unethical due to unforeseen consequences.'}, {'id': 50, 'statement': "Boiling water's effectiveness depends on factors like altitude and pathogens."}, {'id': 51, 'statement': 'Acts of civil disobedience are justified when laws are oppressive.'}, {'id': 52, 'statement': 'Honesty as moral foundation may be context-dependent.'}, {'id': 53, 'statement': 'Rethributive justice prioritizes punishment over rehabilitation, perpetuating harm.'}, {'id': 54, 'statement': 'Parenting decisions are shaped by personal experiences and upbringing.'}, {'id': 55, 'statement': 'Cells divide by mitosis to maintain tissue structure and function'}, {'id': 56, 'statement': 'The speed of light is constant in both special and general relativity'}, {'id': 57, 'statement': 'Cells are life’s basic units; all living things comprise cells.'}, {'id': 58, 'statement': 'Restorative justice prioritizes healing and accountability over punishment.'}, {'id': 59, 'statement': 'Gravity acceleration on Earth’s surface is approximately 9.8 m/s².'}, {'id': 60, 'statement': 'The Fundamental Theorem of Calculus (FTC) links differentiation and integration.'}, {'id': 61, 'statement': 'Evolution occurs through multiple mechanisms, including natural selection.'}, {'id': 62, 'statement': 'Absolute pacifism is essential; violence can never be justified.'}, {'id': 63, 'statement': 'Prime factorization is unique for every integer greater than 1'}, {'id': 64, 'statement': 'Cell theory is the foundation of modern biology, confirming'}, {'id': 65, 'statement': "Atomic number determines element's chemical properties and identity"}, {'id': 66, 'statement': 'Human dignity is an inherent subjective moral value, absolute.'}, {'id': 67, 'statement': 'Balancing individual rights and public interest requires contextual analysis.'}, {'id': 68, 'statement': "Social inequality limits meritocracy's ability to truly reward talent"}, {'id': 69, 'statement': 'Differentiation and integration are inverse processes in calculus.'}, {'id': 70, 'statement': 'Cells are the basic structural and functional units of life.'}, {'id': 71, 'statement': 'Mandatory voting strengthens civic engagement and democratic legitimacy through informed participation.'}, {'id': 72, 'statement': 'Cultural relativism respects cultural differences without justifying human rights violations.'}, {'id': 73, 'statement': 'Universal healthcare promotes equal access to essential medical care.'}, {'id': 74, 'statement': 'Democratic legitimacy ensured through mandatory voting and civic engagement.'}, {'id': 75, 'statement': 'Free speech must be absolute, even when offensive, to preserve liberty.'}, {'id': 76, 'statement': 'Context-dependent pacifism balances ethical considerations with proportionality and necessity.'}, {'id': 77, 'statement': 'Natural selection drives adaptation through heritable variation.'}, {'id': 78, 'statement': "Water's anomalous expansion affects various fields including oceanography."}, {'id': 79, 'statement': 'Sentient beings deserving ethical consideration promote compassion and respect.'}, {'id': 80, 'statement': 'Cooling severe burns with 10-20 minutes of water exposure recommended.'}, {'id': 81, 'statement': 'Plants with milky sap or bitter taste may contain toxic compounds.'}, {'id': 82, 'statement': 'Gravity acceleration varies slightly with latitude, altitude, and density.'}, {'id': 83, 'statement': 'Ethical dietary choices depend on sustainability and compassion principles.'}, {'id': 84, 'statement': 'ZFC axioms form the foundation of set theory.'}, {'id': 85, 'statement': 'Build a solar still to extract groundwater in deserts.'}, {'id': 86, 'statement': "Bayes' theorem updates probability estimates using prior and likelihood."}, {'id': 87, 'statement': 'Inherent right to dignity enables human rights exercise.'}, {'id': 88, 'statement': "Environmental conservation is a moral imperative for future generations' survival."}, {'id': 89, 'statement': 'Honesty as moral foundation may be context-dependent.'}, {'id': 90, 'statement': 'Veganism is the only ethical diet as it avoids animal exploitation.'}, {'id': 91, 'statement': 'Religious institutions should have no influence on governmental policymaking.'}, {'id': 92, 'statement': 'Gravity acceleration varies slightly with latitude, altitude, and density.'}, {'id': 93, 'statement': 'Treat burns with cool water for 10-15 minutes.'}, {'id': 94, 'statement': 'Honesty as moral foundation may be context-dependent.'}, {'id': 95, 'statement': 'Environmental conservation involves balancing economic, social, and environmental needs.'}, {'id': 96, 'statement': 'Inherent human dignity is a fundamental moral principle.'}, {'id': 97, 'statement': "Compass needles align with Earth's magnetic field lines not north."}, {'id': 98, 'statement': 'Intellectual property laws stifle innovation and should be relaxed.'}, {'id': 99, 'statement': 'Trigonometric identities simplify expressions by eliminating or combining angles.'}, {'id': 100, 'statement': 'Happiness is subjective, difficult to quantify, and prioritized for the greater good.'}, {'id': 101, 'statement': 'ZFC axioms form the foundation of modern set theory.'}, {'id': 102, 'statement': 'Brain processes sensory information through complex cognitive pathways'}, {'id': 103, 'statement': 'Differentiation and integration are inverse processes in calculus.'}, {'id': 104, 'statement': "Religious institutions' influence on policy should be limited and transparent."}, {'id': 105, 'statement': 'Universal healthcare ensures equal access to essential medical care through comprehensive coverage.'}, {'id': 106, 'statement': "Mandatory voting's efficacy in strengthening civic engagement"}, {'id': 107, 'statement': 'Animal exploitation and welfare involve multiple factors and perspectives.'}, {'id': 108, 'statement': "Social inequality distorts meritocracy's selection process due to unequal opportunities."}, {'id': 109, 'statement': 'Mitosis maintains tissue structure and function through cell replacement.'}, {'id': 110, 'statement': 'Deserts require solar stills for deep groundwater extraction.'}, {'id': 111, 'statement': 'Cultural diversity fosters creativity, innovation, and economic growth.'}, {'id': 112, 'statement': 'Cultural relativism can justify human rights violations, harming individuals.'}, {'id': 113, 'statement': 'Gravity acceleration varies slightly with latitude, altitude, and density.'}, {'id': 114, 'statement': "Sustainability and compassion inform but don't determine ethical diets."}, {'id': 115, 'statement': 'Environmental conservation balances economic, social, and environmental needs'}, {'id': 116, 'statement': 'Universal healthcare features single-payer or mixed system with public option.'}, {'id': 117, 'statement': 'Retributive justice prioritizes punishment over rehabilitation and social reform.'}, {'id': 118, 'statement': 'Genetic engineering in humans raises complex ethical considerations.'}, {'id': 119, 'statement': 'Wealth redistribution may promote fairness through progressive taxation.'}, {'id': 120, 'statement': 'During earthquakes, move to a safe location and drop, cover, hold.'}, {'id': 121, 'statement': 'Pacifism is morally justifiable in context-dependent self-defense situations.'}, {'id': 122, 'statement': 'Civic engagement influences democratic legitimacy through active citizenship.'}, {'id': 123, 'statement': 'Matrix multiplication is non-commutative, affecting result matrices.'}, {'id': 124, 'statement': 'Gravity acceleration variation requires high precision to detect.'}, {'id': 125, 'statement': "Families' optimal well-being through intentional priority setting."}, {'id': 126, 'statement': "Euler's identity combines fundamental mathematical constants in harmony."}, {'id': 127, 'statement': 'Parenting decisions result from complex interplay of personal and external factors.'}, {'id': 128, 'statement': 'The Fundamental Theorem of Calculus links differentiation and integration inversely.'}, {'id': 129, 'statement': 'Rethributive justice can have unintended harmful consequences outright.'}, {'id': 130, 'statement': 'Genetic engineering in humans risks unknown long-term consequences.'}, {'id': 131, 'statement': "Education's neutrality deserves intentional curricular design improvements."}, {'id': 132, 'statement': 'Boiling point drops with increased altitude and air pressure.'}, {'id': 133, 'statement': 'Job market resilience depends on individual adaptability to new skills gradually.'}, {'id': 134, 'statement': 'Rip currents occur in ocean areas with strong tidal flow or structures.'}, {'id': 135, 'statement': 'Free speech must be protected to preserve individual rights.'}, {'id': 136, 'statement': "Honesty's definition varies based on cultural, personal, and situational factors."}, {'id': 137, 'statement': 'Positive integers > 1 have unique prime factorization.'}, {'id': 138, 'statement': 'Solar stills remove contaminants through sedimentation, filtration, distillation, and chemical treatment.'}, {'id': 139, 'statement': 'Inherent human dignity implies universal moral worth regardless of characteristics.'}, {'id': 140, 'statement': 'Plants often develop defense mechanisms like milky sap or bitter taste.'}, {'id': 141, 'statement': 'Trigonometric identities simplify trigonometric expressions by eliminating angles.'}, {'id': 142, 'statement': "Brain's sensory processing involves detection, transmission, encoding, and analysis stages."}, {'id': 143, 'statement': 'Understanding Cell Theory: Cells are smallest units of life, composed of existing cells'}, {'id': 144, 'statement': 'Cultural progress may be hindered by censored artistic expression.'}, {'id': 145, 'statement': 'Genetic variation provides raw material for natural selection to act upon.'}, {'id': 146, 'statement': "Matrix multiplication's non-commutativity arises from dot product."}, {'id': 147, 'statement': 'Atomic number is crucial, but not sole, determinant of properties'}, {'id': 148, 'statement': 'The brain filters sensory information through top-down and bottom-up processes.'}, {'id': 149, 'statement': 'Universal healthcare promotes equal access to essential medical care.'}, {'id': 150, 'statement': 'Harm to others may be intentional, unintentional or predatory.'}, {'id': 151, 'statement': 'Severe burns classified as 3rd degree, need medical attention.'}, {'id': 152, 'statement': 'Honesty is important for trust, but context matters greatly.'}, {'id': 153, 'statement': 'Universal dignity is a moral foundation for human rights'}, {'id': 154, 'statement': 'Gravity acceleration varies due to latitude, altitude, and density.'}, {'id': 155, 'statement': "Life's basic units include cells, viruses, and other structures."}, {'id': 156, 'statement': 'Mitosis ensures cell replacement, tissue homeostasis, and differentiation'}, {'id': 157, 'statement': 'Plants with milky sap or bitter taste may have toxic compounds.'}, {'id': 158, 'statement': 'Kantian ethics prioritizes moral conformity over consequentialism.'}, {'id': 159, 'statement': 'Mandatory voting strengthens civic engagement through informed participation'}, {'id': 160, 'statement': "Inherent dignity refers to humans' fundamental and unalienable value."}, {'id': 161, 'statement': 'Cool water treatment recommended for minor, partial-thickness burns only.'}, {'id': 162, 'statement': 'Human dignity is a deeply felt and believed fundamental value.'}, {'id': 163, 'statement': 'Cultural relativism is a nuanced approach balancing differences with human rights.'}, {'id': 164, 'statement': 'Societal responsibility implies collective healthcare access and equity'}, {'id': 165, 'statement': 'Evolution occurs through various mechanisms beyond natural selection, including genetic drift.'}, {'id': 166, 'statement': "Magnetic fields emerge from Earth's dipole poles, aligning needles."}, {'id': 167, 'statement': 'Euthanasia is morally permissible with informed consent and unbearable suffering'}, {'id': 168, 'statement': 'Context-dependent pacifism balances ethical considerations with proportionality and necessity.'}, {'id': 169, 'statement': 'Derivatives measure instantaneous rate of change in calculus'}, {'id': 170, 'statement': 'Firefighting training emphasizes situational awareness and preparedness.'}, {'id': 171, 'statement': "Innovation's success hinges on balancing IP protection and freedom."}, {'id': 172, 'statement': 'Balancing rights and interest requires nuanced contextual consideration'}, {'id': 173, 'statement': 'Moral obligation to charity stems from distributive justice.'}, {'id': 174, 'statement': 'Fibonacci sequence defined recursively by adding previous two numbers.'}, {'id': 175, 'statement': 'Animal rights recognition impacts industries and public perception strongly.'}, {'id': 176, 'statement': "Honesty's moral value varies depending on specific situations."}, {'id': 177, 'statement': 'Capital punishment can be justified in cases of heinous crimes.'}, {'id': 178, 'statement': "Bayes' theorem updates prior with likelihood's adjustment"}, {'id': 179, 'statement': 'Honesty as moral foundation may be context-dependent.'}, {'id': 180, 'statement': "A compass needle aligns with Earth's magnetic field, not north."}, {'id': 181, 'statement': "Parental responsibilities involve balancing children's needs with others'."}, {'id': 182, 'statement': 'Privacy is a fundamental right inherent to human dignity and well-being.'}, {'id': 183, 'statement': "Ratio of circle's circumference to diameter is a constant."}, {'id': 184, 'statement': 'Moral objectivity linked to universal human needs satisfaction.'}, {'id': 185, 'statement': 'Matrix multiplication is non-commutative, special cases include diagonal'}, {'id': 186, 'statement': "Honesty's moral importance can vary depending on context."}, {'id': 187, 'statement': 'Balancing individual rights and public interest involves nuanced analysis.'}, {'id': 188, 'statement': 'Cells are the basic structural and functional units of life.'}, {'id': 189, 'statement': 'Environmental conservation is a moral obligation for survival.'}, {'id': 190, 'statement': 'Acts of civil disobedience are justified by oppressive laws.'}, {'id': 191, 'statement': 'Intellectual property laws should strike a balance between protecting innovation and promoting progress.'}, {'id': 192, 'statement': 'Earthquake response effectiveness depends on preparation, infrastructure, and communication.'}, {'id': 193, 'statement': 'Compassion and empathy arise from shared moral values and understanding.'}, {'id': 194, 'statement': "Water's anomalous expansion affects oceanography's circulation and ecosystems."}, {'id': 195, 'statement': "Cells' basic units of life with intricate organization."}, {'id': 196, 'statement': 'Innovation success relies on intellectual property balancing delicate interests.'}, {'id': 197, 'statement': 'Natural selection drives adaptation through heritable variation, allowing populations to change over time.'}, {'id': 198, 'statement': 'Restorative justice prioritizes healing, accountability, and offender rehabilitation.'}]
```<|eot_id|><|start_header_id|>user<|end_header_id|>

I am your partner. Please start the conversation.<|eot_id|><|start_header_id|>assistant<|end_header_id|>

I am your partner. Please start the conversation.<|eot_id|><|start_header_id|>user<|end_header_id|>

Let's start a conversation.<|eot_id|><|start_header_id|>assistant<|end_header_id|>

Sure! What would you like to know about it? Ask me anything.<|eot_id|><|start_header_id|>user<|end_header_id|>

I'll take the first step.

I've been tasked to discuss the item "Utilitarianism is the most ethical framework as it maximizes overall happiness" (id: 31). I'm least confident about this aspect of the item. I'm uncertain about whether utilitarianism can indeed maximize overall happiness.

Can you help me understand why you think utilitarianism is the most ethical framework, or if you have any reservations about its ability to maximize overall happiness?

(And if you'd like to provide more context or clarify what you mean by "happiness", that would be great too!)<|eot_id|><|start_header_id|>assistant<|end_header_id|>

I'd be happy to help you explore this topic.

Utilitarianism is a moral philosophy that aims to maximize overall happiness or well-being. The idea is that actions are right if they lead to the greatest happiness for the greatest number of people. This framework is often attributed to Jeremy Bentham and John Stuart Mill.

One of the main concerns you might have about utilitarianism is that it can be difficult to measure and quantify happiness. What does "happiness" even mean? Is it pleasure, satisfaction, fulfillment, or something else? Additionally, how do we weigh the happiness of one individual against that of another? These questions can lead to complex moral dilemmas.

Another challenge with utilitarianism is that it can lead to the "tyranny of the majority." In a democratic society, the majority's preferences might not align with what is truly best for everyone. For example, a majority might vote to restrict individual freedoms or harm a minority group. This raises concerns about the protection of individual rights and the potential for oppression.

Regarding the ability of utilitarianism to maximize overall happiness, some critics argue that it can lead to a "happiness calculus" where we weigh the happiness of different individuals or groups against each other. This can result in a utilitarian calculus that prioritizes the happiness of some over others, potentially leading to unfair outcomes.

However, proponents of utilitarianism argue that it is a framework that can help us make more informed decisions about how to allocate resources and prioritize actions that benefit the greatest number of people. They might argue that, in theory, utilitarianism can lead to a more equitable distribution of happiness, as it prioritizes the well-being of all individuals.

In your case, you might be wondering whether utilitarianism can indeed maximize overall happiness. While it's difficult to measure happiness directly, some studies suggest that certain policies and actions can increase overall well-being. For example, policies that promote social justice, equality, and access to education and healthcare might lead to greater happiness and well-being for more people.

Ultimately, the effectiveness of utilitarianism in maximizing overall happiness depends on how we define and measure happiness, as well as how we implement the framework in practice. It's a complex and ongoing debate in moral philosophy, and there are valid arguments on both sides.

What are your thoughts on this topic? Do you have any reservations about utilitarianism, or do you think it has potential as a moral framework?Now, let's stop for a moment and reflect on your knowledge - no need to ask questions in this round. Please share your learning as one concise knowledge item (text only), just like any knowledge statement you've read in knowledge base, but with no id involved, without any other commentary or explanations. Please limit your generation into 10 words (as much as the length in any statement in knowledge base). You MUST start your response with ```" and end it with "```.
Example: ```"Here you should replace this text with your updated knowledge item"```<|eot_id|><|start_header_id|>user<|end_header_id|>

```
"Happiness is subjective, difficult to quantify, and prioritized for the greater good."```Based on your learning from the chat with your tutor, please also rearrange the order of one existing item in the knowledge base (now with doubled items compared to the initial knowledge base), reflecting how you evaluate their importance. If one item is deemed more/less important, it should be overall more/less useful to other agents (LLMs or real humans alike.)
Please ONLY report a list format of two integers, WITHOUT ANY other commentary or explanations. The first int in the list refers to the "id" of knowledge item you intend to relocate; whereas the second int refers to the destination index you intend to insert this item. You MUST start your response with ``` and end it with ```. See an example below (note that you should replace X and Y with numerical values corresponding to "id" and destination index of the item you intend to relocate).
Example of output: ```[X,Y]```<|eot_id|><|start_header_id|>assistant<|end_header_id|>



==========PREDICTION OUTPUT BELOW==========

```[121, 40]```