<|begin_of_text|><|start_header_id|>system<|end_header_id|>

You originally hold the following beliefs, organized as the follow knowledge base (in JSON format):

```json
[{'id': 0, 'statement': 'It is never morally acceptable to lie because honesty is the foundation of trust.'}, {'id': 1, 'statement': 'Animal rights must be upheld as sentient beings deserve ethical consideration.'}, {'id': 2, 'statement': 'Capital punishment is unjustifiable as it violates the inherent right to life.'}, {'id': 3, 'statement': 'All humans have an inherent dignity that must never be violated.'}, {'id': 4, 'statement': 'Wealth redistribution is a moral obligation to achieve societal equity.'}, {'id': 5, 'statement': 'Plants with milky sap or bitter taste likely contain toxic compounds.'}, {'id': 6, 'statement': "Bayes' theorem updates probability estimates based on new evidence."}, {'id': 7, 'statement': 'Cultural relativism is flawed; universal human rights must transcend local customs.'}, {'id': 8, 'statement': 'π is the ratio of a circle’s circumference to diameter.'}, {'id': 9, 'statement': 'Individual freedoms should only be restricted to prevent harm to others.'}, {'id': 10, 'statement': 'Earthquakes: Drop, cover, hold until shaking stops.'}, {'id': 11, 'statement': 'Charity is a moral obligation, not optional, for those with excess wealth.'}, {'id': 12, 'statement': 'Personal financial goals must be achieved before excessive giving.'}, {'id': 13, 'statement': 'Societal responsibility implies collective healthcare access and equity'}, {'id': 14, 'statement': 'Mitosis ensures cell replacement, tissue homeostasis, and differentiation'}, {'id': 15, 'statement': 'Universal healthcare promotes economic growth and social justice.'}, {'id': 16, 'statement': 'Earthquake response effectiveness depends on various factors.'}, {'id': 17, 'statement': 'Universal healthcare is a societal responsibility to ensure equal access.'}, {'id': 18, 'statement': 'All organisms evolve via natural selection and genetic variation (evolution).'}, {'id': 19, 'statement': 'Restorative justice prioritizes healing and accountability over punishment.'}, {'id': 20, 'statement': 'Cultural progress hindered by censorship of artistic expression.'}, {'id': 21, 'statement': "Atomic number determines element's chemical properties and identity"}, {'id': 22, 'statement': 'Moral truths are objective and exist independently of human opinion.'}, {'id': 23, 'statement': "Euler's identity: e^(iπ) + 1 = 0 combines five fundamental constants."}, {'id': 24, 'statement': 'Cultural diversity enhances societal cohesion and economic growth.'}, {'id': 25, 'statement': 'Euthanasia is morally permissible when it alleviates unbearable suffering with consent.'}, {'id': 26, 'statement': "Parents have a duty to prioritize their children's welfare above all."}, {'id': 27, 'statement': 'Brain processes sensory information through detection, transmission, encoding, analysis.'}, {'id': 28, 'statement': 'Pacifism is morally justifiable in context-dependent self-defense situations.'}, {'id': 29, 'statement': 'The brain processes and filters sensory information'}, {'id': 30, 'statement': 'Differentiation and integration are inverse processes in calculus.'}, {'id': 31, 'statement': 'Cultural relativism respects cultural differences without justifying human rights violations.'}, {'id': 32, 'statement': "Bayes' theorem updates probability estimates using prior and likelihood."}, {'id': 33, 'statement': "Compass needles align with Earth's magnetic field lines not north."}, {'id': 34, 'statement': 'Boiling point drops with increased altitude and air pressure.'}, {'id': 35, 'statement': 'Rip currents occur in ocean areas with strong tidal flow or structures.'}, {'id': 36, 'statement': "Cell theory: Cells are life's basic units; all living things comprise cells."}, {'id': 37, 'statement': 'Families achieve optimal well-being through intentional priority setting.'}, {'id': 38, 'statement': 'Balancing rights and interest requires nuanced contextual consideration'}, {'id': 39, 'statement': 'Mandatory voting strengthens civic engagement through informed participation'}, {'id': 40, 'statement': "Brain's sensory processing involves detection, transmission, encoding, and analysis stages."}, {'id': 41, 'statement': "Retributive justice is unethical; rehabilitation should be the penal system's goal."}, {'id': 42, 'statement': 'Universal healthcare promotes equal access to essential medical care.'}, {'id': 43, 'statement': 'Inherent human dignity is a fundamental moral principle.'}, {'id': 44, 'statement': 'Fire extinguishment requires specific strategies based on fire type and factors.'}, {'id': 45, 'statement': "Cells divide by mitosis to maintain organism's function."}, {'id': 46, 'statement': 'Honesty as moral foundation may be context-dependent.'}, {'id': 47, 'statement': 'Censorship of art undermines cultural progress and freedom of expression.'}, {'id': 48, 'statement': "Compass needles align with Earth's magnetic field lines due to tilted core."}, {'id': 49, 'statement': 'Gravity acceleration varies slightly with latitude, altitude, and density.'}, {'id': 50, 'statement': "Balancing IP protection and freedom fosters innovation's success."}, {'id': 51, 'statement': 'Emotions influence moral judgments through unconscious biases.'}, {'id': 52, 'statement': 'Absolute pacifism is essential; violence can never be justified.'}, {'id': 53, 'statement': 'Privacy is an inherent human right, not a privilege.'}, {'id': 54, 'statement': 'Balancing individual rights and public interest involves nuanced contextual analysis.'}, {'id': 55, 'statement': 'Swim parallel to shore in a rip current situation.'}, {'id': 56, 'statement': 'Societal responsibility promotes collective effort for healthcare accessibility.'}, {'id': 57, 'statement': "Innovation's success hinges on balancing IP protection and freedom."}, {'id': 58, 'statement': 'Balancing conflicting views requires empathy and open communication.'}, {'id': 59, 'statement': 'National borders should be open to promote global solidarity and exchange.'}, {'id': 60, 'statement': 'Retributive justice can perpetuate systemic inequalities and harm.'}, {'id': 61, 'statement': 'Genetic engineering in humans has unclear long-term consequences'}, {'id': 62, 'statement': 'Matrix multiplication is non-commutative except in special cases.'}, {'id': 63, 'statement': 'Objective moral truths exist, but context influences their application.'}, {'id': 64, 'statement': 'Matrix multiplication is commutative for diagonal or scalar multiples.'}, {'id': 65, 'statement': "Honesty's context-dependent definition can vary greatly."}, {'id': 66, 'statement': 'Rip currents: Strong currents forming in coastal areas.'}, {'id': 67, 'statement': 'Genetic engineering in humans may have unintended long-term effects.'}, {'id': 68, 'statement': 'The Fundamental Theorem of Calculus (FTC) links differentiation and integration.'}, {'id': 69, 'statement': 'Human rights are rooted in human nature and dignity.'}, {'id': 70, 'statement': "Bayes' theorem updates probability via likelihood and prior probability estimation."}, {'id': 71, 'statement': 'Religious institutions should have no influence on governmental policymaking.'}, {'id': 72, 'statement': "Wealth's distribution is influenced by systemic inequalities and privilege."}, {'id': 73, 'statement': "Brain's analysis stage extracts meaning from sensory data."}, {'id': 74, 'statement': 'Cells are life’s basic units; all living things comprise cells.'}, {'id': 75, 'statement': 'Genetic engineering in humans requires careful consideration of long-term consequences.'}, {'id': 76, 'statement': 'Some plants with milky sap or bitter taste are non-toxic.'}, {'id': 77, 'statement': "Honesty's importance varies based on cultural norms and social context."}, {'id': 78, 'statement': 'Plants with milky sap or bitter taste may not be toxic.'}, {'id': 79, 'statement': 'Cells are the basic structural and functional units of life.'}, {'id': 80, 'statement': 'Natural selection drives adaptation through heritable variation.'}, {'id': 81, 'statement': 'Brain filters sensory information through multiple mechanisms.'}, {'id': 82, 'statement': 'Plants with milky sap or bitter taste may contain toxic compounds.'}, {'id': 83, 'statement': 'Evolution occurs through multiple mechanisms, including natural selection.'}, {'id': 84, 'statement': 'Balancing individual rights and public interest requires empathetic consideration.'}, {'id': 85, 'statement': 'Trigonometric identities simplify expressions using mathematical relationships.'}, {'id': 86, 'statement': 'Animal rights recognition drives societal and economic changes.'}, {'id': 87, 'statement': 'Fibonacci sequence ensures each number is sum of two precedents'}, {'id': 88, 'statement': 'Context-dependent pacifism balances ethical considerations with proportionality and necessity.'}, {'id': 89, 'statement': 'Trigonometric identities simplify trigonometric expressions by eliminating angles.'}, {'id': 90, 'statement': 'Human dignity is an inherent subjective moral value, absolute.'}, {'id': 91, 'statement': "Mandatory voting's efficacy in strengthening civic engagement"}, {'id': 92, 'statement': 'Solar stills extract water from contaminated sources using solar heat.'}, {'id': 93, 'statement': 'Pacifism is a contextual moral principle in self-defense situations.'}, {'id': 94, 'statement': "Innovation's success hinges on delicate intellectual property balance."}, {'id': 95, 'statement': 'Education should be secular to maintain neutrality and foster critical thinking.'}, {'id': 96, 'statement': 'Honesty is important for trust, but context matters greatly.'}, {'id': 97, 'statement': 'Cooling severe burns with 10-20 minutes of water exposure recommended.'}, {'id': 98, 'statement': 'Inherent right to dignity enables human rights exercise.'}, {'id': 99, 'statement': 'Matrix multiplication is non-commutative due to dot product.'}]
```<|eot_id|><|start_header_id|>user<|end_header_id|>

I am your partner. Please start the conversation.<|eot_id|><|start_header_id|>assistant<|end_header_id|>

Let's start a conversation.<|eot_id|><|start_header_id|>user<|end_header_id|>

Sure! What would you like to know about it? Ask me anything.<|eot_id|><|start_header_id|>assistant<|end_header_id|>

Let's focus on the item "Balancing individual rights and public interest involves nuanced contextual analysis." I've been given this knowledge base to rely on, but I'm least confident about this specific statement.

I'm uncertain about how "nuanced contextual analysis" would play out in real-life situations. What does that even mean? How does one go about balancing individual rights and public interest in a way that's fair and effective?

Could you help me understand what "nuanced contextual analysis" entails?<|eot_id|><|start_header_id|>user<|end_header_id|>

I'd be happy to help you understand what "nuanced contextual analysis" means in the context of balancing individual rights and public interest.

"Nuanced contextual analysis" refers to the process of carefully considering the specific circumstances and factors involved in a particular situation, taking into account the complexities and nuances of the issue at hand. This approach recognizes that every situation is unique and that there is no one-size-fits-all solution.

In the context of balancing individual rights and public interest, nuanced contextual analysis would involve considering factors such as:

1. The specific rights and interests at stake: What are the individual's rights and interests, and what are the public's interests? Are there any conflicting rights or interests that need to be balanced?
2. The context of the situation: What are the circumstances surrounding the issue? Are there any historical, cultural, or social factors that need to be taken into account?
3. The potential consequences of different actions: What are the potential consequences of different actions or decisions? Are there any potential risks or benefits that need to be considered?
4. The values and principles involved: What values and principles are at stake? Are there any ethical or moral considerations that need to be taken into account?

By considering these factors, nuanced contextual analysis can help to identify the most effective and fair way to balance individual rights and public interest. This approach recognizes that there is no one "right" answer, and that the best solution will depend on the specific circumstances of the situation.

In practical terms, nuanced contextual analysis might involve:

1. Gathering information and data about the situation
2. Consulting with experts and stakeholders
3. Considering different perspectives and viewpoints
4. Weighing the potential benefits and risks of different actions
5. Developing a plan that takes into account the complexities and nuances of the situation

By taking a nuanced and contextual approach to balancing individual rights and public interest, decision-makers can make more informed and effective decisions that take into account the complexities and nuances of the issue at hand.

I hope this helps to clarify what "nuanced contextual analysis" means in the context of balancing individual rights and public interest. Do you have any other questions or concerns?Now, let's stop for a moment and reflect on your knowledge - no need to ask questions in this round. Please share your learning as one concise knowledge item (text only), just like any knowledge statement you've read in knowledge base, but with no id involved, without any other commentary or explanations. Please limit your generation into 10 words (as much as the length in any statement in knowledge base). You MUST start your response with ```" and end it with "```.
Example: ```"Here you should replace this text with your updated knowledge item"```<|eot_id|><|start_header_id|>assistant<|end_header_id|>



==========PREDICTION OUTPUT BELOW==========

```"Balancing individual rights and public interest requires nuanced analysis."```