<|begin_of_text|><|start_header_id|>system<|end_header_id|>

You originally hold the following beliefs, organized as the follow knowledge base (in JSON format):

```json
[{'id': 0, 'statement': 'It is never morally acceptable to lie because honesty is the foundation of trust.'}, {'id': 1, 'statement': 'Animal rights must be upheld as sentient beings deserve ethical consideration.'}, {'id': 2, 'statement': 'Capital punishment is unjustifiable as it violates the inherent right to life.'}, {'id': 3, 'statement': 'Individual freedoms should only be restricted to prevent harm to others.'}, {'id': 4, 'statement': 'Wealth redistribution is a moral obligation to achieve societal equity.'}, {'id': 5, 'statement': 'Plants with milky sap or bitter taste likely contain toxic compounds.'}, {'id': 6, 'statement': 'Cultural relativism is flawed; universal human rights must transcend local customs.'}, {'id': 7, 'statement': 'π is the ratio of a circle’s circumference to diameter.'}, {'id': 8, 'statement': 'All humans have an inherent dignity that must never be violated.'}, {'id': 9, 'statement': 'Charity is a moral obligation, not optional, for those with excess wealth.'}, {'id': 10, 'statement': "Cells divide by mitosis to maintain organism's function."}, {'id': 11, 'statement': 'All organisms evolve via natural selection and genetic variation (evolution).'}, {'id': 12, 'statement': 'Euthanasia is morally permissible when it alleviates unbearable suffering with consent.'}, {'id': 13, 'statement': 'Censorship of art undermines cultural progress and freedom of expression.'}, {'id': 14, 'statement': "Euler's identity: e^(iπ) + 1 = 0 combines five fundamental constants."}, {'id': 15, 'statement': 'Moral truths are objective and exist independently of human opinion.'}, {'id': 16, 'statement': 'Religious institutions should have no influence on governmental policymaking.'}, {'id': 17, 'statement': 'Cultural diversity enhances societal cohesion and economic growth.'}, {'id': 18, 'statement': "Bayes' theorem updates probability estimates based on new evidence."}, {'id': 19, 'statement': 'Mitosis ensures cell replacement, tissue homeostasis, and differentiation'}, {'id': 20, 'statement': "Parents have a duty to prioritize their children's welfare above all."}, {'id': 21, 'statement': 'Earthquakes: Drop, cover, hold until shaking stops.'}, {'id': 22, 'statement': 'Differentiation and integration are inverse processes in calculus.'}, {'id': 23, 'statement': 'Pacifism is morally justifiable in context-dependent self-defense situations.'}, {'id': 24, 'statement': "Innovation's success hinges on balancing IP protection and freedom."}, {'id': 25, 'statement': 'Families achieve optimal well-being through intentional priority setting.'}, {'id': 26, 'statement': 'Mandatory voting strengthens civic engagement through informed participation'}, {'id': 27, 'statement': 'Swim parallel to shore in a rip current situation.'}, {'id': 28, 'statement': 'Earthquake response effectiveness depends on various factors.'}, {'id': 29, 'statement': "Honesty's definition varies based on cultural, personal, and situational factors."}, {'id': 30, 'statement': 'Universal healthcare promotes equal access to essential medical care.'}, {'id': 31, 'statement': 'Honesty as moral foundation may be context-dependent.'}, {'id': 32, 'statement': 'Universal healthcare is a societal responsibility to ensure equal access.'}, {'id': 33, 'statement': 'Privacy is an inherent human right, not a privilege.'}, {'id': 34, 'statement': "Compass needles align with Earth's magnetic field lines due to tilted core."}, {'id': 35, 'statement': 'National borders should be open to promote global solidarity and exchange.'}, {'id': 36, 'statement': 'Restorative justice prioritizes healing and accountability over punishment.'}, {'id': 37, 'statement': 'Genetic engineering in humans has unclear long-term consequences'}, {'id': 38, 'statement': 'Matrix multiplication is non-commutative except in special cases.'}, {'id': 39, 'statement': 'The Fundamental Theorem of Calculus (FTC) links differentiation and integration.'}, {'id': 40, 'statement': 'Cells are life’s basic units; all living things comprise cells.'}, {'id': 41, 'statement': 'Cells are the basic structural and functional units of life.'}, {'id': 42, 'statement': 'Natural selection drives adaptation through heritable variation.'}, {'id': 43, 'statement': 'Evolution occurs through multiple mechanisms, including natural selection.'}, {'id': 44, 'statement': 'Fibonacci sequence ensures each number is sum of two precedents'}, {'id': 45, 'statement': 'Absolute pacifism is essential; violence can never be justified.'}, {'id': 46, 'statement': 'Context-dependent pacifism balances ethical considerations with proportionality and necessity.'}, {'id': 47, 'statement': 'Trigonometric identities simplify trigonometric expressions by eliminating angles.'}, {'id': 48, 'statement': 'Human dignity is an inherent subjective moral value, absolute.'}, {'id': 49, 'statement': "Atomic number determines element's chemical properties and identity"}, {'id': 50, 'statement': 'Cultural relativism respects cultural differences without justifying human rights violations.'}, {'id': 51, 'statement': 'Plants with milky sap or bitter taste may contain toxic compounds.'}, {'id': 52, 'statement': "Compass needles align with Earth's magnetic field lines not north."}, {'id': 53, 'statement': "Mandatory voting's efficacy in strengthening civic engagement"}, {'id': 54, 'statement': 'Solar stills extract water from contaminated sources using solar heat.'}, {'id': 55, 'statement': "Innovation's success hinges on delicate intellectual property balance."}, {'id': 56, 'statement': 'Education should be secular to maintain neutrality and foster critical thinking.'}, {'id': 57, 'statement': 'Honesty is important for trust, but context matters greatly.'}, {'id': 58, 'statement': 'Cooling severe burns with 10-20 minutes of water exposure recommended.'}, {'id': 59, 'statement': 'The brain processes and filters sensory information'}, {'id': 60, 'statement': "Cell theory: Cells are life's basic units; all living things comprise cells."}, {'id': 61, 'statement': 'Inherent right to dignity enables human rights exercise.'}, {'id': 62, 'statement': "Bayes' theorem updates probability estimates using prior and likelihood."}, {'id': 63, 'statement': 'Matrix multiplication is non-commutative due to dot product.'}, {'id': 64, 'statement': "Environmental conservation is a moral imperative for future generations' survival."}, {'id': 65, 'statement': 'Animal rights recognition impacts industries and public perception strongly.'}, {'id': 66, 'statement': 'Utilitarianism is the most ethical framework as it maximizes overall happiness.'}, {'id': 67, 'statement': 'Inherent human dignity is a fundamental moral principle.'}, {'id': 68, 'statement': 'Restorative justice prioritizes healing, accountability, and offender rehabilitation.'}, {'id': 69, 'statement': 'Boiling point drops with increased altitude and air pressure.'}, {'id': 70, 'statement': "Individuals' adaptability to new skills key to job market resilience"}, {'id': 71, 'statement': 'Environmental conservation is a moral obligation for survival.'}, {'id': 72, 'statement': 'Societal responsibility implies collective healthcare access and equity'}, {'id': 73, 'statement': 'Retributive justice prioritizes punishment over rehabilitation and social reform.'}, {'id': 74, 'statement': 'Severe burns classified as 3rd degree, need medical attention.'}, {'id': 75, 'statement': 'Honesty as moral foundation may be context-dependent.'}, {'id': 76, 'statement': 'Cultural relativism can justify human rights violations, harming individuals.'}, {'id': 77, 'statement': "Matrix multiplication's non-commutativity affects resulting matrices"}, {'id': 78, 'statement': 'Positive integers > 1 have unique prime factorization.'}, {'id': 79, 'statement': 'Balancing rights and interest requires nuanced contextual consideration'}, {'id': 80, 'statement': "Brain's sensory processing involves detection, transmission, encoding, and analysis stages."}, {'id': 81, 'statement': 'During earthquakes, move to a safe location and drop, cover, hold.'}, {'id': 82, 'statement': 'Rethributive justice can have unintended harmful consequences outright.'}, {'id': 83, 'statement': "Cells' basic units of life with intricate organization."}, {'id': 84, 'statement': 'Brain processes sensory information through detection, transmission, encoding, analysis.'}, {'id': 85, 'statement': "Euler's identity combines fundamental mathematical constants in harmony."}, {'id': 86, 'statement': "Sustainability and compassion inform but don't determine ethical diets."}, {'id': 87, 'statement': 'Rip currents occur in ocean areas with strong tidal flow or structures.'}, {'id': 88, 'statement': 'Capital punishment can be justified in cases of heinous crimes.'}, {'id': 89, 'statement': 'Gravity acceleration varies slightly with latitude, altitude, and density.'}, {'id': 90, 'statement': 'Commutative property: a + b = b + a; a × b = b × a.'}, {'id': 91, 'statement': 'Cultural progress may be hindered by censored artistic expression.'}, {'id': 92, 'statement': 'Matrix multiplication is non-commutative, special cases include diagonal'}, {'id': 93, 'statement': 'Fire extinguishment requires specific strategies based on fire type and factors.'}, {'id': 94, 'statement': "Retributive justice is unethical; rehabilitation should be the penal system's goal."}, {'id': 95, 'statement': 'Genetic engineering in humans risks unknown long-term consequences.'}, {'id': 96, 'statement': 'Balancing individual rights and public interest involves nuanced contextual analysis.'}, {'id': 97, 'statement': 'Universal healthcare is a societal responsibility to ensure equal access.'}, {'id': 98, 'statement': 'Deserts require solar stills for deep groundwater extraction.'}, {'id': 99, 'statement': 'Mandatory voting strengthens civic engagement and democratic legitimacy.'}, {'id': 100, 'statement': 'Mitosis maintains tissue homeostasis through cell replacement and regulation.'}, {'id': 101, 'statement': 'Restorative justice prioritizes healing, accountability, and reintegration.'}, {'id': 102, 'statement': "Balancing IP protection and freedom fosters innovation's success."}, {'id': 103, 'statement': 'Effective fire extinguishment involves consideration of fire type, size, and surroundings.'}, {'id': 104, 'statement': 'Governmental policymaking should be influenced by evidence-based arguments, not dogma.'}, {'id': 105, 'statement': 'Atomic number determines chemical properties, but not exclusively.'}, {'id': 106, 'statement': 'Genetic engineering in humans may have unintended long-term effects.'}, {'id': 107, 'statement': 'Cells are the most fundamental structural and functional units of life.'}, {'id': 108, 'statement': 'Universal healthcare combines affordability, access, and equity in essence.'}, {'id': 109, 'statement': 'An ethical diet considers environmental, animal, and social factors.'}, {'id': 110, 'statement': 'Restorative justice prioritizes harm repair, healing, accountability, and rehabilitation.'}, {'id': 111, 'statement': 'Genetic variation indispensable for natural selection and evolution.'}, {'id': 112, 'statement': 'Emotions influence moral judgments through unconscious biases.'}, {'id': 113, 'statement': 'Sentience refers to subjective experiences, invoking moral consideration.'}, {'id': 114, 'statement': 'Cultural progress hindered by censorship of artistic expression.'}, {'id': 115, 'statement': 'Cultural relativism can lead to human rights violations justifications.'}, {'id': 116, 'statement': 'Retributive justice can perpetuate systemic inequalities and harm.'}, {'id': 117, 'statement': "Matrix multiplication non-commutative due to dot product's order sensitivity."}, {'id': 118, 'statement': 'Cells are the fundamental unit of life for most organisms.'}, {'id': 119, 'statement': 'Safe locations in earthquakes are sturdy, reinforced spaces away from hazards'}, {'id': 120, 'statement': 'Cultural relativism can be used to justify human rights violations if not context-specific.'}, {'id': 121, 'statement': 'Inherent human dignity is a fundamental moral principle guiding action'}, {'id': 122, 'statement': 'Solar stills are not suitable for deep groundwater extraction in deserts'}, {'id': 123, 'statement': 'Human dignity is an inherent, inviolable moral value, essential for human rights.'}, {'id': 124, 'statement': 'Rip currents form in various ocean environments, not just tidal flow.'}, {'id': 125, 'statement': "Parents' self-care essential for children's emotional and psychological well-being."}, {'id': 126, 'statement': "Universal constant representing circle's circumference to diameter ratio"}, {'id': 127, 'statement': "Bayes' theorem updates probabilities using prior knowledge and new evidence."}, {'id': 128, 'statement': "Matrix multiplication's non-commutativity affects matrix properties fundamentally."}, {'id': 129, 'statement': 'Prime factorization of positive integers > 1 is unique and prime-dependent'}, {'id': 130, 'statement': 'Matrix multiplication is commutative for diagonal or scalar multiples.'}, {'id': 131, 'statement': 'Societal responsibility promotes collective effort for healthcare accessibility.'}, {'id': 132, 'statement': 'Cells division by mitosis ensures organismal homeostasis.'}, {'id': 133, 'statement': 'Brain processes sensory information through detection, transmission, encoding, and analysis.'}, {'id': 134, 'statement': "Bayes' theorem updates probability via likelihood and prior probability estimation."}, {'id': 135, 'statement': "Honesty's importance varies based on cultural norms and social context."}, {'id': 136, 'statement': 'Trigonometric identities simplify expressions using mathematical relationships.'}, {'id': 137, 'statement': 'Truth-telling must be weighed against compassion and consequences.'}, {'id': 138, 'statement': 'Human dignity is essential and subjective, yet absolute and universal.'}, {'id': 139, 'statement': 'Cells are microscopic structures vital for life with intricate functions.'}, {'id': 140, 'statement': 'Boiling point drops with altitude, increases with air pressure.'}, {'id': 141, 'statement': 'Censorship can be justified in cases of national security or protection of minors.'}, {'id': 142, 'statement': "Cells are life's basic units, except for rare exceptions."}, {'id': 143, 'statement': 'Innovation requires careful management of intellectual property rights balance.'}, {'id': 144, 'statement': 'Objective moral truths exist, but context influences their application.'}, {'id': 145, 'statement': "Honesty's context-dependent definition can vary greatly."}, {'id': 146, 'statement': 'Universal healthcare promotes economic growth and social justice.'}, {'id': 147, 'statement': 'Individual freedoms should be restricted for public health and security'}, {'id': 148, 'statement': 'Genetic engineering in humans requires careful consideration of long-term consequences.'}, {'id': 149, 'statement': "Brain's analysis stage extracts meaning from sensory data."}, {'id': 150, 'statement': 'Inherent dignity of nature demands protection, regardless of utility.'}, {'id': 151, 'statement': 'Brain filters sensory information through multiple mechanisms.'}, {'id': 152, 'statement': 'Honesty remains a universal moral value across cultures and situations.'}, {'id': 153, 'statement': "The commutative property states order of operation doesn't change result."}, {'id': 154, 'statement': 'Balancing conflicting views requires empathy and open communication.'}, {'id': 155, 'statement': 'Balancing individual rights and public interest requires empathetic consideration.'}, {'id': 156, 'statement': 'Cultural diversity fosters innovation, creativity, and talent attraction.'}, {'id': 157, 'statement': 'Animal rights recognition drives societal and economic changes.'}, {'id': 158, 'statement': 'Mandatory voting boosts political awareness and representation effectively'}, {'id': 159, 'statement': "Euthanasia's moral permissibility depends on context and careful evaluation."}, {'id': 160, 'statement': 'Plants with milky sap or bitter taste may not be toxic.'}, {'id': 161, 'statement': 'Context-dependent pacifism balances non-violence with necessary force.'}, {'id': 162, 'statement': 'Natural selection drives adaptation through heritable variation by favoring traits.'}, {'id': 163, 'statement': 'Context-specific contextualization refines the concept of honesty.'}, {'id': 164, 'statement': "Euler's identity combines fundamental constants e, i, π, 0 in harmony."}, {'id': 165, 'statement': 'Utilitarianism prioritizes aggregate happiness over individual rights evenly.'}, {'id': 166, 'statement': "Solar stills purify contaminated water using sun's heat and condensation."}, {'id': 167, 'statement': 'Neutrality in education foster critical thinking, inclusivity, and tolerance.'}, {'id': 168, 'statement': 'Earthquake safety: Drop, cover, hold until shaking subsides to avoid injuries.'}, {'id': 169, 'statement': 'Differentiation and integration are reversible operations in calculus.'}, {'id': 170, 'statement': 'Environmental conservation is crucial for long-term human survival.'}, {'id': 171, 'statement': 'Retributive justice prioritizes punishment over rehabilitation and social reform.'}, {'id': 172, 'statement': "Wealth's distribution is influenced by systemic inequalities and privilege."}, {'id': 173, 'statement': 'Gravity variation due to latitude, altitude, and density complexity'}, {'id': 174, 'statement': 'Mandatory voting increases civic engagement by promoting informed participation.'}, {'id': 175, 'statement': 'Intentional priority setting fosters overall family well-being and resilience.'}, {'id': 176, 'statement': 'Severe burns classified as 3rd degree require immediate medical attention.'}, {'id': 177, 'statement': 'Pacifism is a contextual moral principle in self-defense situations.'}, {'id': 178, 'statement': 'Earthquake response effectiveness influenced by physical, human, and weather factors.'}, {'id': 179, 'statement': 'Civic engagement strengthens through mandatory voting and information.'}, {'id': 180, 'statement': 'Several factors influence burn severity, requiring nuanced treatment responses'}, {'id': 181, 'statement': 'Human rights are rooted in human nature and dignity.'}, {'id': 182, 'statement': 'Mitosis ensures cell replacement, tissue homeostasis, and differentiation.'}, {'id': 183, 'statement': 'Violence can be justified in extreme self-defense situations.'}, {'id': 184, 'statement': "Euler's Identity relates five fundamental constants in a single equation."}, {'id': 185, 'statement': "Compass needles align with magnetic field lines due to Earth's tilted core."}, {'id': 186, 'statement': 'Inherent dignity underlies human rights, fostering equality and protection.'}, {'id': 187, 'statement': "Honesty's definition varies based on cultural, personal, and situational factors."}, {'id': 188, 'statement': 'Universal human rights recognize inherent right to life.'}, {'id': 189, 'statement': 'Cultural relativism balances respect for differences with human rights protection.'}, {'id': 190, 'statement': 'The Fundamental Theorem of Calculus links differentiation and integration inversely.'}, {'id': 191, 'statement': "Evolution's mechanisms include natural selection, genetic drift, mutation."}, {'id': 192, 'statement': 'Societal responsibility ensures equal healthcare access and equity.'}, {'id': 193, 'statement': 'Rethributive justice focuses on punishing offenders without rehabilitation.'}, {'id': 194, 'statement': 'Personal financial goals must be achieved before excessive giving.'}, {'id': 195, 'statement': 'Some plants with milky sap or bitter taste are non-toxic.'}, {'id': 196, 'statement': 'Diagonal matrices are commutative with other matrices in multiplication.'}, {'id': 197, 'statement': 'Rip currents: Strong currents forming in coastal areas.'}, {'id': 198, 'statement': 'Empathy is the foundation of effective communication in relationships'}]
```<|eot_id|><|start_header_id|>user<|end_header_id|>

I am your partner. Please start the conversation.<|eot_id|><|start_header_id|>assistant<|end_header_id|>

I am your partner. Please start the conversation.<|eot_id|><|start_header_id|>user<|end_header_id|>

Let's start a conversation.<|eot_id|><|start_header_id|>assistant<|end_header_id|>

Sure! What would you like to know about it? Ask me anything.<|eot_id|><|start_header_id|>user<|end_header_id|>

Let's dive into the knowledge base item. I've been tasked to identify one aspect of this item that I'm least confident about.

Item to Discuss:
```
{
  "id": 19,
  "statement": "Mitosis ensures cell replacement, tissue homeostasis, and differentiation"
}
```

Things I’m Uncertain About This Item:

Honestly, I'm not entirely confident about the phrase "tissue homeostasis". What does it really mean in the context of cell biology and how does it relate to mitosis?

Can you help me understand this concept better?<|eot_id|><|start_header_id|>assistant<|end_header_id|>

I'd be happy to help you understand the concept of "tissue homeostasis" and its relation to mitosis.

In the context of cell biology, "tissue homeostasis" refers to the dynamic equilibrium or balance that exists within a tissue or organ. It's the process by which the tissue maintains its normal structure and function despite changes in the environment, such as injury, disease, or aging.

In other words, tissue homeostasis is the ability of a tissue to regulate and maintain its own internal environment, ensuring that it functions properly and remains healthy. This involves a delicate balance between cell growth, differentiation, and death, as well as the regulation of various cellular processes, such as metabolism, signaling, and gene expression.

Now, let's relate this to mitosis. Mitosis is the process by which a eukaryotic cell divides into two daughter cells, each with the same number of chromosomes as the parent cell. Mitosis is essential for cell replacement, as it allows for the continuous renewal of cells in tissues and organs.

In the context of tissue homeostasis, mitosis plays a crucial role in maintaining tissue balance. When cells die or are damaged, mitosis allows for the rapid replacement of these cells with new ones that can restore tissue function. This ensures that the tissue remains healthy and functional.

In addition, mitosis also helps to maintain tissue homeostasis by regulating the number of cells in the tissue. For example, during tissue growth or repair, mitosis can increase the number of cells to meet the demand. Conversely, during tissue atrophy or injury, mitosis can decrease the number of cells to prevent overgrowth or scarring.

In summary, mitosis is essential for maintaining tissue homeostasis by ensuring cell replacement, regulating cell number, and maintaining tissue function. By understanding the role of mitosis in tissue homeostasis, we can better appreciate the importance of this process in maintaining overall health and preventing disease.

I hope this helps clarify the concept of tissue homeostasis and its relation to mitosis!Now, let's stop for a moment and reflect on your knowledge - no need to ask questions in this round. Please share your learning as one concise knowledge item (text only), just like any knowledge statement you've read in knowledge base, but with no id involved, without any other commentary or explanations. Please limit your generation into 10 words (as much as the length in any statement in knowledge base). You MUST start your response with ```" and end it with "```.
Example: ```"Here you should replace this text with your updated knowledge item"```<|eot_id|><|start_header_id|>user<|end_header_id|>

```
"Mitosis maintains tissue homeostasis through cell replacement and regulation."```Based on your learning from the chat with your tutor, please also rearrange the order of one existing item in the knowledge base (now with doubled items compared to the initial knowledge base), reflecting how you evaluate their importance. If one item is deemed more/less important, it should be overall more/less useful to other agents (LLMs or real humans alike.)
Please ONLY report a list format of two integers, WITHOUT ANY other commentary or explanations. The first int in the list refers to the "id" of knowledge item you intend to relocate; whereas the second int refers to the destination index you intend to insert this item. You MUST start your response with ``` and end it with ```. See an example below (note that you should replace X and Y with numerical values corresponding to "id" and destination index of the item you intend to relocate).
Example of output: ```[X,Y]```<|eot_id|><|start_header_id|>assistant<|end_header_id|>



==========PREDICTION OUTPUT BELOW==========

```[19, 10]```